63
charge: 0; multiplicity: 1; energy: -1233.944034380387; SMILES: C[C@@H](C)/N=C1\C=C([C@H](C)[C@H]2C=C(O)N(c3ccccc3C(C)(C)C)C2=O)CCC1; frequencies: [0.0, 0.0, 0.0, 0.0, 0.0, 0.0, 23.44, 26.38, 31.79, 37.49, 54.7, 58.59, 70.22, 78.99, 96.69, 109.04, 118.85, 134.02, 135.77, 154.61, 179.81, 201.72, 226.31, 227.49, 236.62, 247.5, 251.6, 260.38, 273.57, 277.0, 291.26, 296.96, 309.19, 309.87, 315.11, 322.04, 334.17, 348.25, 378.35, 387.24, 394.46, 410.16, 428.44, 432.61, 450.68, 457.05, 476.15, 504.32, 514.79, 526.11, 532.44, 575.48, 576.23, 578.08, 599.86, 613.58, 621.05, 659.63, 677.58, 682.99, 709.6, 745.32, 753.1, 773.31, 788.67, 795.8, 823.5, 842.53, 864.61, 867.38, 875.85, 911.15, 915.99, 917.47, 929.18, 932.53, 945.77, 957.86, 962.83, 964.56, 971.11, 979.43, 990.5, 1003.75, 1025.36, 1032.17, 1046.92, 1048.39, 1052.76, 1070.58, 1081.37, 1085.26, 1089.1, 1101.4, 1124.15, 1126.83, 1151.58, 1156.15, 1162.41, 1172.92, 1183.24, 1187.83, 1198.45, 1199.9, 1221.44, 1225.18, 1229.86, 1235.87, 1241.97, 1274.45, 1285.63, 1289.14, 1297.89, 1303.9, 1306.71, 1321.62, 1338.54, 1342.84, 1344.73, 1370.03, 1374.36, 1379.36, 1382.6, 1385.08, 1397.46, 1399.74, 1402.95, 1410.37, 1412.87, 1427.91, 1431.71, 1448.5, 1468.95, 1477.1, 1477.96, 1478.56, 1483.81, 1484.77, 1490.39, 1491.44, 1491.67, 1494.21, 1500.32, 1506.09, 1506.82, 1508.11, 1512.38, 1526.87, 1549.75, 1651.17, 1681.48, 1702.08, 1748.68, 1775.08, 1805.42, 3026.54, 3044.18, 3054.53, 3056.96, 3057.89, 3060.15, 3060.62, 3064.06, 3064.82, 3068.78, 3070.16, 3071.79, 3105.97, 3112.14, 3120.2, 3123.67, 3123.75, 3129.67, 3130.43, 3132.04, 3135.02, 3136.78, 3144.27, 3147.04, 3148.27, 3148.34, 3178.23, 3203.34, 3212.43, 3225.1, 3227.43, 3240.62, 3278.38, 3789.14]; program: ORCA; DOI: 10.1021/acs.joc.1c01235
C     -0.096790  3.792975 -3.007545
C      0.289724  2.402891 -2.521952
H      1.378161  2.314409 -2.581691
N     -0.370697  1.423722 -3.379239
C     -0.144302  2.185983 -1.076423
H      0.201618  1.225892 -0.699540
H     -1.232147  2.209641 -1.013163
H      0.255473  2.966567 -0.430627
C      0.148408  0.280848 -3.582647
C      0.399693 -1.507426 -5.289067
C      1.896277 -1.441082 -3.266442
C      1.326428 -2.291247 -4.369871
C      1.389862 -0.236290 -2.976441
C     -0.587606 -0.690745 -4.469032
H     -0.126054 -2.188867 -5.955923
H      2.142789 -2.723987 -4.945717
H      1.861613  0.349120 -2.202873
H     -1.285613 -0.132512 -5.086518
H      0.990013 -0.834643 -5.914084
H      0.799911 -3.136403 -3.922264
H     -1.168734 -1.367722 -3.836590
C      3.041752 -1.989534 -2.428517
C     -1.796471 -3.533736  0.390253
C     -3.135242 -1.523095 -1.109313
C     -1.098668 -2.517633 -0.269955
C     -3.184119 -3.523511  0.213482
C     -3.846905 -2.550637 -0.511383
C     -1.761202 -1.524202 -0.992153
H     -3.772815 -4.306842  0.662302
H     -4.922342 -2.596293 -0.604152
H     -1.169086 -0.759038 -1.474214
H     -3.632348 -0.748547 -1.673718
C     -1.188354 -4.661330  1.237578
C      0.233275 -4.393484  1.748446
H      0.977226 -4.474614  0.964641
H      0.472940 -5.148153  2.496061
H      0.322901 -3.417737  2.223112
C     -2.055505 -4.894751  2.486584
H     -3.058767 -5.236196  2.248903
H     -2.135406 -3.986666  3.083208
H     -1.592563 -5.664845  3.101107
C     -1.172871 -5.939870  0.388059
H     -0.565771 -5.797472 -0.502953
H     -2.181011 -6.213690  0.079625
H     -0.758272 -6.764288  0.968534
N      0.322950 -2.408058 -0.268731
C      1.021178 -1.341486  0.332223
C      1.176494 -3.108518 -1.093428
C      2.294091 -1.297749 -0.047721
H      3.030358 -0.597444  0.301843
C      2.536110 -2.417567 -1.017542
H      3.247040 -3.145146 -0.619879
O      0.871474 -4.084086 -1.741322
O      0.374582 -0.564095  1.213311
H     -0.572383 -0.737450  1.159285
C      3.809615 -3.133263 -3.083384
H      3.175312 -4.007271 -3.212699
H      4.205106 -2.841702 -4.054490
H      4.650664 -3.418494 -2.453291
H      3.736095 -1.167710 -2.251182
H      0.383126  4.561571 -2.402419
H      0.198794  3.932277 -4.045527
H     -1.176717  3.919809 -2.945173
