31
charge: 0; multiplicity: 1; energy: -485.681043042451; SMILES: C/C=C1/C=C(N[C@@H](C)C)CCC1; frequencies: [0.0, 0.0, 0.0, 0.0, 0.0, 0.0, 58.96, 64.59, 93.35, 103.68, 111.91, 152.99, 218.12, 228.92, 260.08, 269.05, 289.5, 302.52, 346.19, 400.51, 418.13, 447.84, 468.7, 486.4, 524.76, 566.24, 584.9, 676.72, 773.37, 820.64, 858.24, 869.08, 885.98, 912.8, 922.02, 935.86, 958.22, 979.02, 983.55, 1014.91, 1057.42, 1081.94, 1087.91, 1110.2, 1155.52, 1172.11, 1181.56, 1199.28, 1229.03, 1260.89, 1275.07, 1298.56, 1341.84, 1348.07, 1362.22, 1369.79, 1381.01, 1398.29, 1409.42, 1412.82, 1419.2, 1421.75, 1469.02, 1477.12, 1481.99, 1482.7, 1484.0, 1490.14, 1492.04, 1493.31, 1506.53, 1542.38, 1712.03, 1750.32, 3035.28, 3040.66, 3045.06, 3050.95, 3054.78, 3058.28, 3070.45, 3074.32, 3083.95, 3105.33, 3115.91, 3123.94, 3124.82, 3138.72, 3144.43, 3146.36, 3153.25, 3199.69, 3626.21]; program: ORCA; DOI: 10.1021/acs.joc.1c01235
C      1.248328  3.106907 -2.015679
C      0.510295  2.097068 -1.138224
H      1.240865  1.489788 -0.602628
N     -0.310961  1.180248 -1.910064
H     -1.174457  1.576564 -2.240640
C     -0.371426  2.797341 -0.115170
H     -0.860500  2.075083  0.534593
H     -1.141810  3.385298 -0.617819
H      0.216632  3.478898  0.496201
C      0.222284  0.202536 -2.729647
C     -0.149217 -1.237052 -4.745610
C      2.026347 -1.297140 -3.516915
C      0.988129 -2.118131 -4.240152
C      1.514920 -0.164456 -2.743365
C     -0.799526 -0.492706 -3.589291
H     -0.892229 -1.838078 -5.268588
H      1.431103 -2.666680 -5.066846
H      2.236841  0.369693 -2.142176
H     -1.511901  0.244858 -3.965991
H      0.248155 -0.515148 -5.460534
H      0.578289 -2.859263 -3.547785
H     -1.371811 -1.184935 -2.966869
C      3.334695 -1.570623 -3.531148
C      4.027996 -2.697569 -4.232568
H      3.347841 -3.318969 -4.808332
H      4.795444 -2.322916 -4.912182
H      4.535208 -3.346412 -3.515929
H      3.980982 -0.914867 -2.956391
H      1.930407  3.713229 -1.420788
H      1.819581  2.605105 -2.792687
H      0.532155  3.774958 -2.495836
