32
charge: 0; multiplicity: 1; energy: -748.251046422749; SMILES: CC(C)(C)c1ccccc1N1C(=O)C=CC1=O; frequencies: [0.0, 0.0, 0.0, 0.0, 0.0, 0.0, 13.86, 46.44, 72.24, 77.07, 118.45, 131.54, 199.79, 226.07, 246.86, 273.29, 291.57, 295.69, 305.45, 335.3, 357.69, 382.12, 403.24, 431.06, 474.88, 502.58, 519.95, 570.39, 576.8, 594.19, 639.68, 654.7, 688.84, 705.28, 755.75, 781.8, 782.96, 789.86, 859.74, 864.65, 898.13, 945.36, 957.67, 963.61, 974.03, 986.18, 998.98, 1018.98, 1048.43, 1050.83, 1056.74, 1074.18, 1088.64, 1124.36, 1160.27, 1187.25, 1199.43, 1232.53, 1236.69, 1243.62, 1288.11, 1310.01, 1321.98, 1333.56, 1399.91, 1402.03, 1431.31, 1443.78, 1479.21, 1485.39, 1491.89, 1495.66, 1506.93, 1514.43, 1528.67, 1552.55, 1654.81, 1687.13, 1688.81, 1817.1, 1883.48, 3054.45, 3065.73, 3073.53, 3122.11, 3126.02, 3133.89, 3140.96, 3149.71, 3166.56, 3201.59, 3211.7, 3227.3, 3240.95, 3258.21, 3279.4]; program: ORCA; DOI: 10.1021/acs.joc.1c01235
C     -1.793338 -3.923300  0.005318
C     -2.959180 -3.779987 -2.579070
C     -1.108379 -3.384040 -1.085052
C     -3.101837 -4.344476 -0.254252
C     -3.679666 -4.281660 -1.507423
C     -1.677783 -3.325776 -2.352372
H     -3.695435 -4.735813  0.555639
H     -4.693907 -4.627869 -1.644502
H     -1.089600 -2.907979 -3.156198
H     -3.390887 -3.731614 -3.567415
C     -1.279982 -4.047010  1.449075
C      0.244056 -3.982185  1.610563
H      0.752565 -4.670322  0.937989
H      0.490654 -4.274169  2.630156
H      0.639408 -2.981638  1.470500
C     -1.908663 -2.916276  2.275361
H     -2.995499 -2.981875  2.259919
H     -1.621380 -1.944407  1.879143
H     -1.576796 -2.983937  3.311681
C     -1.708766 -5.402084  2.037568
H     -1.331395 -6.225467  1.432911
H     -2.786555 -5.505242  2.120845
H     -1.299407 -5.500054  3.041701
N      0.205937 -2.830221 -0.986000
C      0.486827 -1.541012 -0.541723
C      1.373758 -3.471484 -1.394708
C      1.971722 -1.371441 -0.676114
H      2.464930 -0.457220 -0.393559
C      2.484754 -2.488546 -1.167027
H      3.509363 -2.730300 -1.392041
O      1.454124 -4.587811 -1.827767
O     -0.310036 -0.746994 -0.121615
