8
charge: 0; multiplicity: 1; energy: -229.243201387932; SMILES: CC(=O)O; frequencies: [0.0, 0.0, 0.0, 0.0, 0.0, 0.0, 78.7, 422.58, 545.32, 589.44, 667.17, 875.29, 1002.12, 1068.54, 1219.59, 1345.38, 1416.16, 1467.97, 1473.42, 1851.74, 3087.24, 3152.62, 3197.09, 3800.17]; program: ORCA; DOI: 10.1021/acs.joc.1c01235
H     -5.336854  0.342358  0.189012
C     -5.050082  0.260945 -0.857092
C     -3.556012  0.188365 -0.964915
O     -3.058428 -0.869105 -0.284107
H     -5.411214  1.117471 -1.413246
H     -5.488969 -0.654555 -1.247534
O     -2.852339  0.951207 -1.568526
H     -2.100882 -0.845064 -0.402101
