71
charge: 0; multiplicity: 1; energy: -1463.203838016569; SMILES: C/C=C1/C=C(N[C@@H](C)C)CCC1.CC(=O)O.CC(C)(C)c1ccccc1N1C(=O)C=CC1=O; frequencies: [0.0, 0.0, 0.0, 0.0, 0.0, 0.0, -195.73, 24.77, 32.59, 40.07, 44.21, 52.79, 61.64, 70.98, 71.81, 79.64, 87.57, 90.66, 95.28, 96.89, 107.16, 111.73, 123.19, 126.78, 131.58, 140.63, 146.5, 172.7, 181.95, 191.66, 207.96, 212.89, 217.18, 228.61, 244.98, 250.82, 255.94, 270.84, 279.63, 288.4, 291.06, 307.94, 311.24, 338.24, 346.15, 358.56, 387.87, 402.8, 410.6, 413.39, 434.94, 442.76, 455.8, 475.2, 478.77, 506.27, 511.38, 531.12, 538.93, 575.19, 583.3, 586.5, 601.29, 603.26, 619.39, 621.93, 644.23, 651.21, 687.52, 690.56, 703.34, 718.8, 753.47, 775.5, 776.27, 786.51, 794.64, 803.52, 829.68, 860.89, 864.62, 869.48, 874.59, 904.29, 907.2, 912.98, 925.28, 941.43, 944.65, 950.61, 956.62, 959.87, 963.2, 968.01, 985.22, 991.43, 993.29, 1000.4, 1017.99, 1020.58, 1026.39, 1048.66, 1052.62, 1055.95, 1066.15, 1069.2, 1079.14, 1081.17, 1093.02, 1099.51, 1123.14, 1124.76, 1155.76, 1158.98, 1179.61, 1185.95, 1187.09, 1191.36, 1211.44, 1226.95, 1232.19, 1243.55, 1249.86, 1268.16, 1284.98, 1288.37, 1295.44, 1307.5, 1320.57, 1332.72, 1340.91, 1348.04, 1363.22, 1374.0, 1377.09, 1390.65, 1398.01, 1399.28, 1399.9, 1403.8, 1415.35, 1419.16, 1426.82, 1432.95, 1434.94, 1441.59, 1449.61, 1465.78, 1469.57, 1473.55, 1478.92, 1480.42, 1482.45, 1482.91, 1485.38, 1486.99, 1489.94, 1492.1, 1494.98, 1496.04, 1496.53, 1504.95, 1507.99, 1510.99, 1514.32, 1531.68, 1549.74, 1599.16, 1616.85, 1632.01, 1650.13, 1688.33, 1720.28, 1781.86, 1824.74, 3043.15, 3056.85, 3058.0, 3060.56, 3062.11, 3063.45, 3065.38, 3067.41, 3073.11, 3085.33, 3089.29, 3095.41, 3106.72, 3108.14, 3123.0, 3125.37, 3128.7, 3132.76, 3133.47, 3135.79, 3138.98, 3143.9, 3150.22, 3151.25, 3154.72, 3157.31, 3170.8, 3182.97, 3193.73, 3198.21, 3217.46, 3232.31, 3242.33, 3250.0, 3261.16, 3263.12, 3281.09, 3522.71]; program: ORCA; DOI: 10.1021/acs.joc.1c01235
C      1.374561  3.201000 -1.808532
C      0.551047  2.081132 -1.181729
H      1.217970  1.353131 -0.716295
N     -0.223638  1.373330 -2.191007
H     -1.232192  1.397917 -2.102668
C     -0.402897  2.604239 -0.121412
H     -0.934133  1.780917  0.350137
H     -1.127470  3.287972 -0.564314
H      0.149596  3.145855  0.643249
C      0.259041  0.420802 -2.985028
C     -0.118140 -1.003365 -5.006515
C      1.976940 -1.186935 -3.625234
C      1.041392 -1.892154 -4.573498
C      1.579605  0.020805 -3.007653
C     -0.757671 -0.290762 -3.826068
H     -0.867833 -1.590392 -5.535674
H      1.606288 -2.212052 -5.449249
H      2.305530  0.544578 -2.407802
H     -1.510081  0.422465 -4.156309
H      0.252900 -0.254727 -5.707406
H      0.679881 -2.812167 -4.108097
H     -1.279866 -0.992437 -3.177391
C      3.141765 -1.789943 -3.219409
C     -1.768514 -3.778023  0.030528
C     -3.053346 -3.742467 -2.498493
C     -1.125744 -3.283500 -1.110989
C     -3.105005 -4.152912 -0.142935
C     -3.747267 -4.132691 -1.365046
C     -1.751431 -3.313872 -2.352898
H     -3.668686 -4.477732  0.715851
H     -4.780977 -4.440836 -1.431473
H     -1.187229 -2.985976 -3.210848
H     -3.519095 -3.755416 -3.472695
C     -1.173910 -3.947709  1.440686
C      0.357593 -3.984424  1.490110
H      0.764920 -4.682400  0.760506
H      0.659144 -4.326089  2.479175
H      0.815011 -3.012855  1.346292
C     -1.680119 -2.817435  2.346126
H     -2.768304 -2.802272  2.377574
H     -1.337998 -1.848908  1.991619
H     -1.309597 -2.967228  3.360611
C     -1.637766 -5.294882  2.025452
H     -1.353826 -6.119455  1.373144
H     -2.709873 -5.342109  2.190520
H     -1.157995 -5.443663  2.991424
N      0.176501 -2.696856 -1.090237
C      0.492787 -1.483487 -0.452591
C      1.345445 -3.338864 -1.491613
C      1.930068 -1.377349 -0.425604
H      2.442252 -0.574658  0.072507
C      2.466741 -2.423099 -1.115527
H      3.456325 -2.830293 -1.008692
O      1.395989 -4.420510 -2.023428
O     -0.355509 -0.733728  0.023326
H     -5.479276 -0.079042 -0.003704
C     -5.110299 -0.212574 -1.017773
C     -3.619291 -0.033330 -1.047859
O     -3.009026 -0.790225 -0.154375
H     -5.583318  0.490895 -1.692359
H     -5.342275 -1.232456 -1.318292
O     -3.048686  0.711737 -1.819281
H     -2.021705 -0.760163 -0.239161
C      3.694951 -3.034027 -3.849322
H      2.932114 -3.801121 -3.960980
H      4.114808 -2.824461 -4.835786
H      4.491473 -3.457564 -3.239982
H      3.852204 -1.150942 -2.710880
H      2.011220  3.666806 -1.057697
H      2.005854  2.827414 -2.611299
H      0.715565  3.963614 -2.221771
