14
charge: 0; multiplicity: 1; energy: -307.876850056069; SMILES: O=CCCCO; frequencies: [0.0, 0.0, 0.0, 0.0, 0.0, 0.0, 72.58, 90.45, 137.27, 305.99, 318.48, 385.77, 466.47, 529.17, 787.34, 843.98, 889.84, 948.25, 1022.0, 1068.59, 1106.55, 1120.78, 1186.84, 1238.72, 1270.69, 1347.24, 1381.32, 1395.67, 1411.72, 1421.75, 1464.07, 1473.89, 1503.94, 1826.53, 2929.66, 3037.84, 3053.81, 3062.98, 3103.67, 3108.29, 3119.22, 3874.77]; program: ORCA; DOI: 10.1021/acscatal.5c05893
O      1.137962  0.316513 -0.093312
C      2.250971  0.715647 -0.321683
C      2.587212  2.136048 -0.684863
C      3.554360  2.779748  0.311624
C      2.933173  2.990709  1.684464
O      2.625315  1.761744  2.327561
H      3.113146  0.024211 -0.276357
H      1.660047  2.703019 -0.759820
H      3.054235  2.108665 -1.672379
H      4.443682  2.157387  0.423487
H      3.884099  3.742219 -0.080608
H      2.043276  3.620312  1.600875
H      3.640346  3.507847  2.330727
H      1.755045  1.468501  2.052446
