36
charge: 0; multiplicity: 1; energy: -729.77502778965; SMILES: CNC(=O)[C@@]12C[C@@H]3C[C@@H](C[C@@](C)(C3)N1O)C2; frequencies: [0.0, 0.0, 0.0, 0.0, 0.0, 0.0, 61.47, 78.07, 95.39, 119.92, 168.38, 204.56, 227.7, 254.2, 265.28, 271.86, 296.55, 309.61, 337.08, 357.7, 379.36, 387.15, 402.93, 430.64, 461.55, 468.64, 518.92, 548.72, 572.34, 588.36, 668.38, 711.73, 756.67, 764.06, 811.91, 824.99, 857.42, 863.69, 886.43, 903.38, 939.44, 948.22, 954.91, 974.44, 988.55, 1012.62, 1026.33, 1039.11, 1060.25, 1076.02, 1085.89, 1108.29, 1118.74, 1131.58, 1152.14, 1159.14, 1181.53, 1187.19, 1190.68, 1206.12, 1242.56, 1275.49, 1284.71, 1303.06, 1306.65, 1332.17, 1336.01, 1350.64, 1356.51, 1376.24, 1382.2, 1385.53, 1388.98, 1393.32, 1405.36, 1411.36, 1451.01, 1469.93, 1479.74, 1481.82, 1482.39, 1486.76, 1489.34, 1501.64, 1508.67, 1509.12, 1556.26, 1777.94, 3046.98, 3054.94, 3059.66, 3060.5, 3063.08, 3065.72, 3077.08, 3081.17, 3087.94, 3099.77, 3102.03, 3114.56, 3115.23, 3127.05, 3129.55, 3144.35, 3156.3, 3161.56, 3649.47, 3862.63]; program: ORCA; DOI: 10.1021/acscatal.5c05893
O     -0.214666 -3.525078 -1.776373
C      0.083685 -2.483681 -1.224049
N      1.363528 -2.045591 -1.121072
C      2.469715 -2.871861 -1.555357
C     -0.956131 -1.602871 -0.529494
C     -2.339236 -1.764354 -1.159019
C     -3.326423 -0.868343 -0.407844
H     -4.313950 -0.960023 -0.859560
C     -3.391094 -1.287128  1.063240
C     -2.002869 -1.158235  1.693848
H     -2.038424 -1.456623  2.741783
C     -1.012068 -2.040643  0.942432
C     -1.512673  0.282012  1.579934
C     -1.451630  0.715343  0.112478
N     -0.494802 -0.198365 -0.561017
O     -0.466757  0.187299 -1.946056
C     -0.929025  2.137517  0.011317
C     -2.849124  0.582124 -0.506465
H      1.518509 -1.242836 -0.536849
H      3.378527 -2.276903 -1.561489
H      2.277169 -3.239813 -2.559189
H      2.611309 -3.735098 -0.904542
H     -2.630458 -2.810489 -1.103677
H     -2.292879 -1.492251 -2.210540
H     -3.740875 -2.317645  1.143252
H     -4.102336 -0.657490  1.601189
H     -1.308775 -3.088264  0.972129
H     -0.019945 -1.958843  1.387663
H     -0.522251  0.384459  2.025796
H     -2.184830  0.961051  2.105687
H      0.468426  0.172163 -2.158364
H     -0.907926  2.473303 -1.021336
H      0.078346  2.198761  0.421595
H     -1.574963  2.805083  0.579773
H     -2.815856  0.903284 -1.546233
H     -3.532099  1.247398  0.024244
