50
charge: 0; multiplicity: 1; energy: -1037.607499229355; SMILES: CNC(=O)[C@@]12C[C@@H]3C[C@@H](C[C@@](C)(C3)[N@@+]1([O-])OCCCCO)C2; frequencies: [0.0, 0.0, 0.0, 0.0, 0.0, 0.0, 38.57, 54.65, 72.94, 80.62, 92.95, 105.28, 118.54, 130.81, 155.68, 194.91, 202.26, 214.35, 230.49, 265.93, 275.9, 280.05, 285.14, 310.87, 312.79, 321.13, 342.17, 355.53, 367.97, 384.24, 396.61, 405.66, 436.47, 463.49, 473.85, 482.47, 499.04, 511.22, 534.24, 543.3, 560.05, 589.68, 664.22, 693.38, 704.24, 764.92, 778.19, 787.92, 827.16, 835.28, 848.1, 855.06, 867.62, 879.41, 900.12, 904.26, 945.05, 953.74, 961.16, 975.09, 978.33, 992.46, 1002.78, 1022.96, 1034.04, 1044.43, 1061.99, 1066.49, 1082.28, 1105.23, 1111.14, 1124.83, 1128.33, 1138.14, 1143.26, 1153.61, 1155.95, 1169.82, 1188.84, 1193.84, 1202.04, 1219.09, 1257.06, 1260.99, 1273.79, 1284.04, 1289.38, 1295.46, 1306.42, 1316.91, 1337.15, 1343.07, 1352.91, 1357.81, 1363.36, 1375.75, 1388.06, 1389.25, 1390.69, 1395.95, 1398.67, 1402.16, 1405.73, 1408.22, 1417.58, 1453.11, 1462.03, 1469.3, 1471.16, 1476.17, 1477.13, 1480.39, 1484.09, 1489.06, 1498.35, 1505.59, 1508.88, 1510.57, 1518.25, 1525.24, 1588.09, 1767.14, 3013.05, 3047.99, 3049.66, 3050.83, 3062.35, 3064.27, 3067.0, 3070.93, 3078.27, 3080.61, 3085.1, 3089.3, 3090.77, 3092.2, 3096.58, 3103.49, 3108.28, 3119.75, 3121.71, 3128.11, 3129.9, 3148.36, 3158.3, 3166.69, 3171.15, 3176.71, 3615.99, 3666.47]; program: ORCA; DOI: 10.1021/acscatal.5c05893
O      0.328577 -2.793950 -1.888125
C      0.499428 -1.999945 -0.982773
N      1.712122 -1.773539 -0.442390
C      2.879182 -2.440126 -0.977290
C     -0.696203 -1.268099 -0.332696
C     -1.996149 -1.883657 -0.854096
C     -3.203541 -1.155282 -0.267783
H     -4.114471 -1.613523 -0.651403
C     -3.176144 -1.245220  1.258489
C     -1.885244 -0.610494  1.775450
H     -1.846803 -0.669807  2.862546
C     -0.676836 -1.340034  1.193219
C     -1.815893  0.851768  1.343800
C     -1.883629  0.980532 -0.175194
N     -0.731343  0.188181 -0.827547
O     -0.698979  0.279883 -2.080359
O      0.563107  0.873953 -0.155327
C      1.403158  1.390305 -1.174012
C      2.517832  2.213333 -0.542398
C      3.621728  1.431140  0.180847
C      3.357102  1.144558  1.650061
O      2.257724  0.273379  1.866899
C     -1.791552  2.420801 -0.630489
C     -3.156402  0.309814 -0.695635
H      1.833414 -1.107142  0.301290
H      3.736333 -2.184325 -0.361355
H      3.069565 -2.135936 -2.006147
H      2.741333 -3.519177 -0.971337
H     -1.998003 -2.933273 -0.566572
H     -1.988301 -1.843549 -1.937902
H     -3.229246 -2.288707  1.572669
H     -4.040932 -0.731345  1.682061
H     -0.706632 -2.397567  1.457401
H      0.239967 -0.941241  1.611280
H     -0.911890  1.326837  1.717013
H     -2.665476  1.404691  1.747039
H      0.820532  2.018208 -1.844009
H      1.826665  0.579500 -1.768240
H      2.085441  2.960695  0.127418
H      2.971054  2.766576 -1.365381
H      3.809103  0.492244 -0.344745
H      4.548111  2.005773  0.130790
H      3.198342  2.089293  2.181095
H      4.223509  0.660031  2.096401
H      1.511057  0.627865  1.361683
H     -1.751784  2.474249 -1.714181
H     -0.917220  2.909216 -0.209325
H     -2.680519  2.946065 -0.286214
H     -3.184979  0.400530 -1.779164
H     -4.006172  0.856507 -0.285392
