17
charge: 0; multiplicity: 1; energy: -625.759967250133; SMILES: O=C(O)c1ccc([N+](=O)[O-])cc1; frequencies: [0.0, 0.0, 0.0, 0.0, 0.0, 0.0, 40.08, 62.75, 82.51, 162.6, 247.7, 280.62, 298.18, 421.94, 456.93, 483.37, 513.07, 546.84, 594.17, 640.51, 674.58, 698.15, 746.09, 790.58, 811.15, 875.55, 890.96, 915.67, 1023.46, 1033.34, 1040.88, 1122.06, 1133.87, 1141.19, 1196.7, 1218.88, 1323.26, 1339.44, 1391.05, 1446.63, 1459.09, 1545.46, 1647.41, 1684.65, 1699.62, 1836.64, 3236.73, 3244.12, 3259.32, 3260.37, 3805.71]; program: ORCA; DOI: 10.1021/jacs.5c15618
O      4.368066 -1.933926 -2.188053
C      4.490858 -1.350243 -0.980443
O      4.305592 -0.176280 -0.804255
C      4.876474 -2.313274  0.092480
C      5.031775 -1.815449  1.380894
C      5.388185 -2.663431  2.413085
C      5.581326 -4.001298  2.124012
N      5.963150 -4.916523  3.223813
O      6.089596 -4.438130  4.330999
O      6.125151 -6.086371  2.947496
C      5.433477 -4.521667  0.852926
C      5.076610 -3.663229 -0.172373
H      4.869949 -0.763474  1.556980
H      5.516612 -2.309352  3.422240
H      5.596149 -5.572805  0.682865
H      4.953419 -4.038273 -1.175344
H      4.118651 -1.236592 -2.806511
