29
charge: 0; multiplicity: 1; energy: -1086.037962245696; SMILES: N[S@@+](/N=C(\[O-])c1ccccc1)c1ccccc1; frequencies: [0.0, 0.0, 0.0, 0.0, 0.0, 0.0, 24.87, 32.54, 46.95, 72.6, 96.99, 134.0, 172.56, 181.62, 213.72, 226.76, 275.89, 322.25, 336.79, 413.61, 418.73, 422.67, 453.84, 471.53, 506.01, 520.67, 626.9, 630.88, 686.26, 711.34, 712.83, 726.57, 731.95, 745.0, 781.09, 833.3, 876.67, 880.92, 882.02, 897.56, 919.91, 967.8, 979.37, 1018.86, 1020.95, 1024.99, 1027.77, 1028.56, 1038.51, 1057.53, 1060.15, 1104.05, 1108.45, 1127.16, 1143.62, 1165.1, 1174.67, 1179.95, 1197.54, 1202.15, 1318.82, 1321.24, 1343.02, 1349.98, 1372.67, 1493.78, 1494.87, 1529.7, 1541.15, 1563.09, 1637.98, 1665.21, 1668.96, 1677.74, 1682.7, 3191.87, 3200.58, 3204.14, 3207.43, 3215.46, 3217.59, 3227.47, 3231.06, 3234.16, 3240.45, 3479.64, 3579.09]; program: ORCA; DOI: 10.1021/jacs.5c15618
N      3.011868  0.533982 -2.111143
H      5.230734 -1.448908 -6.074400
H      6.777718 -3.045233 -7.172147
S      3.642430  1.225970 -3.544138
C      6.146397 -1.750076 -5.589522
N      4.380077  0.014849 -4.301951
C      7.014857 -2.641918 -6.198095
C      5.540974 -0.258708 -3.649947
C      6.449773 -1.228744 -4.336809
H      1.813882 -0.803485 -4.435201
C      2.120207  1.308934 -4.440152
C      8.187966 -3.016420 -5.558044
H      8.864416 -3.712363 -6.033808
C      1.414750  0.151648 -4.738936
O      5.842685  0.228197 -2.552483
H      2.237383  3.441613 -4.578588
C      1.661237  2.558811 -4.817132
C      7.625337 -1.605359 -3.698434
C      8.492757 -2.497128 -4.307580
C      0.222833  0.259775 -5.430279
H     -0.339106 -0.629435 -5.674983
C      0.461894  2.657463 -5.510654
H      7.840607 -1.186454 -2.727197
H      9.406159 -2.787772 -3.808768
C     -0.251900  1.510327 -5.814012
H      0.092754  3.625646 -5.814334
H     -1.183495  1.586008 -6.355944
H      2.397580  1.207507 -1.665336
H      3.827968  0.387544 -1.521595
