27
charge: 0; multiplicity: 1; energy: -1030.686125562065; SMILES: O=C(NSc1ccccc1)c1ccccc1; frequencies: [0.0, 0.0, 0.0, 0.0, 0.0, 0.0, 10.01, 24.39, 35.16, 80.15, 117.76, 131.48, 192.13, 232.67, 257.91, 297.5, 357.67, 406.94, 413.25, 416.86, 428.84, 496.35, 513.11, 525.95, 628.25, 630.52, 676.19, 714.21, 717.36, 721.02, 732.19, 778.84, 822.18, 859.62, 871.49, 878.94, 881.15, 962.32, 970.77, 1015.91, 1016.74, 1023.53, 1026.13, 1033.07, 1034.11, 1059.66, 1063.01, 1107.66, 1109.98, 1130.82, 1137.9, 1175.85, 1178.1, 1205.34, 1207.32, 1270.45, 1301.38, 1320.82, 1350.91, 1354.59, 1450.63, 1487.21, 1496.46, 1527.17, 1544.89, 1654.8, 1661.69, 1665.08, 1683.17, 1785.81, 3195.36, 3195.61, 3202.61, 3204.37, 3213.29, 3213.37, 3222.17, 3223.48, 3229.28, 3232.38, 3664.21]; program: ORCA; DOI: 10.1021/jacs.5c15618
H      4.287699 -2.114579 -4.539923
H      5.337900 -4.326227 -4.412287
S      3.686789  1.963893 -5.305603
H      4.613487 -0.037526 -4.549931
C      4.944979 -2.436189 -5.335502
N      4.313288  0.395457 -5.404140
C      5.526009 -3.693300 -5.267125
C      4.555609 -0.260888 -6.589901
C      5.169322 -1.622371 -6.440484
H      1.870723  0.635650 -7.117422
C      1.938076  1.656730 -5.237638
C      6.338247 -4.138599 -6.298444
H      6.793837 -5.116652 -6.242746
C      1.295225  0.983685 -6.272657
O      4.301137  0.213978 -7.673137
H      1.720391  2.655685 -3.358453
C      1.209177  2.142541 -4.160158
C      5.967017 -2.082083 -7.481974
C      6.556830 -3.331939 -7.406914
C     -0.072563  0.778451 -6.208007
H     -0.571708  0.248699 -7.006475
C     -0.165939  1.958576 -4.116550
H      6.109534 -1.446170 -8.342502
H      7.183750 -3.680397 -8.214626
C     -0.805335  1.269909 -5.134841
H     -0.732390  2.341117 -3.279848
H     -1.874172  1.117027 -5.095582
