19
charge: 0; multiplicity: 1; energy: -681.088966812424; SMILES: NOC(=O)c1ccc([N+](=O)[O-])cc1; frequencies: [0.0, 0.0, 0.0, 0.0, 0.0, 0.0, 36.38, 53.15, 71.4, 122.57, 129.92, 164.8, 252.97, 278.58, 284.45, 378.2, 420.76, 466.07, 474.43, 515.89, 544.08, 640.38, 688.63, 734.61, 740.74, 802.45, 872.88, 874.79, 900.02, 911.82, 955.31, 1020.23, 1032.74, 1041.21, 1124.06, 1135.59, 1141.75, 1200.93, 1226.19, 1318.99, 1325.23, 1342.0, 1400.59, 1446.41, 1458.79, 1544.96, 1638.85, 1647.38, 1684.1, 1699.33, 1814.37, 3237.08, 3244.49, 3259.3, 3260.45, 3446.68, 3550.14]; program: ORCA; DOI: 10.1021/jacs.5c15618
O      4.161579 -1.843885 -2.119856
C      4.365386 -1.447671 -1.000956
O      4.235709 -0.163663 -0.632170
N      3.889217  0.725823 -1.702965
C      4.799507 -2.311653  0.135772
C      5.084920 -1.789661  1.392795
C      5.482124 -2.633650  2.414734
C      5.582894 -3.986012  2.150176
N      6.006252 -4.891961  3.242262
O      6.244754 -4.393440  4.321889
O      6.087098 -6.074914  2.987670
C      5.306301 -4.528562  0.909776
C      4.911700 -3.675822 -0.104850
H      2.943348  1.007124 -1.465715
H      3.814160  0.122002 -2.520836
H      5.000341 -0.729647  1.568473
H      5.712338 -2.262559  3.399404
H      5.401909 -5.590347  0.755701
H      4.687472 -4.052992 -1.090334
