49
charge: 0; multiplicity: 1; energy: -1796.255981773544; SMILES: CN[C-]([O-])[C@@H](C)/[NH+]=C1\C(=O)C(=O)\C1=[NH+]/[C@@H](C)C[NH+]=P(C)(C)C.[Cl-]; frequencies: [0.0, 0.0, 0.0, 0.0, 0.0, 0.0, 24.54, 38.77, 39.39, 54.73, 58.45, 63.39, 73.55, 84.02, 91.9, 93.27, 102.59, 114.53, 120.51, 135.98, 155.95, 159.13, 169.79, 183.54, 189.01, 196.1, 214.65, 219.8, 232.18, 236.96, 239.56, 245.34, 259.72, 266.2, 277.21, 279.66, 299.41, 315.85, 338.44, 344.94, 376.38, 402.75, 412.21, 449.04, 483.34, 522.71, 538.48, 607.09, 633.12, 654.26, 671.98, 707.1, 712.87, 729.98, 750.28, 770.22, 772.97, 786.01, 793.14, 810.78, 813.75, 832.26, 845.58, 871.22, 874.75, 879.54, 901.05, 937.76, 941.4, 956.94, 969.79, 973.87, 1017.13, 1044.48, 1059.31, 1078.7, 1087.94, 1124.57, 1132.92, 1145.27, 1149.52, 1183.13, 1190.45, 1212.46, 1237.45, 1263.9, 1273.55, 1303.64, 1330.33, 1333.87, 1338.36, 1340.87, 1353.07, 1400.22, 1402.39, 1404.8, 1415.29, 1420.6, 1433.4, 1435.37, 1444.33, 1449.19, 1450.36, 1455.94, 1463.19, 1471.59, 1481.87, 1482.64, 1488.07, 1488.5, 1494.83, 1498.81, 1503.86, 1535.02, 1543.35, 1577.78, 1578.68, 1675.61, 1750.84, 1790.04, 1888.13, 2972.8, 3059.99, 3063.71, 3067.77, 3069.3, 3073.33, 3074.12, 3075.77, 3077.81, 3100.85, 3116.3, 3131.24, 3137.85, 3150.77, 3153.37, 3154.47, 3155.32, 3160.54, 3162.35, 3168.14, 3170.44, 3173.11, 3179.77, 3330.4, 3418.64, 3668.67]; program: ORCA; DOI: 10.1021/jacs.4c17080
H      1.153516 -1.556027  4.976337
C      1.737864 -0.674098  4.715831
H      1.817789 -0.041585  5.595651
H      2.738684 -0.997030  4.429408
C      1.068205  0.084687  3.581373
H      1.615942  1.006921  3.398272
N     -0.299049  0.467927  3.920595
C     -0.679866  1.745386  3.775529
C      0.046632  3.025455  3.780603
C     -1.297330  3.710498  3.553813
O     -1.711691  4.837728  3.404176
O      1.213075  3.349628  3.821570
C     -1.896001  2.366251  3.511246
N     -3.124518  1.916551  3.231567
C     -4.079256  2.810478  2.604495
H     -4.354464  3.590739  3.314589
C     -5.312215  2.011954  2.201633
H     -6.046828  2.656646  1.725563
H     -5.027806  1.222322  1.508646
H     -5.758880  1.553170  3.080386
C     -3.475556  3.476255  1.363202
N     -3.875382  4.744347  1.141648
C     -3.256139  5.530699  0.092437
H     -2.221148  5.769264  0.338401
H     -3.816299  6.451443 -0.039170
O     -2.722602  2.876164  0.608049
C      1.060964 -0.776072  2.306509
N      0.130324 -0.336081  1.278278
P      0.344135  0.748638  0.102370
H     -1.022189 -0.221842  3.722758
H     -3.176700  0.932097  2.958942
H     -4.218309  5.242633  1.943027
H      0.760442 -1.789312  2.572615
H      2.072949 -0.840341  1.906605
C      1.821353  0.325447 -0.826071
C      0.534093  2.456699  0.594595
C     -1.103999  0.625502 -0.924299
H     -0.861301 -0.574857  1.494802
H     -3.273190  4.968187 -0.835584
Cl     -2.644741 -1.095912  2.273405
H      1.933914  1.006139 -1.666862
H      1.744069 -0.697182 -1.185289
H      2.697144  0.418254 -0.187209
H      0.815869  3.054046 -0.270957
H     -0.424489  2.808697  0.969284
H      1.292928  2.559232  1.367540
H     -1.050334  1.357640 -1.726284
H     -1.184127 -0.380970 -1.324900
H     -1.968139  0.850732 -0.300454
