41
charge: 0; multiplicity: 1; energy: -1392.778247242918; SMILES: Cc1cccc2c1N(S(C)(=O)=O)Cc1ccccc1C(=O)N2C; frequencies: [0.0, 0.0, 0.0, 0.0, 0.0, 0.0, 37.22, 47.72, 55.63, 65.36, 91.88, 115.78, 119.62, 133.6, 136.64, 156.69, 173.95, 210.01, 218.8, 222.04, 240.89, 261.86, 290.61, 299.68, 328.36, 336.3, 348.71, 372.97, 382.95, 402.38, 420.19, 451.89, 468.42, 512.72, 520.43, 533.56, 559.25, 567.81, 583.85, 613.77, 623.11, 640.87, 683.35, 735.89, 751.36, 778.88, 787.1, 791.98, 809.91, 828.0, 840.16, 861.08, 913.33, 930.9, 943.77, 964.69, 972.74, 984.02, 995.71, 1009.47, 1019.28, 1023.29, 1025.36, 1065.03, 1068.46, 1080.57, 1100.95, 1129.71, 1134.98, 1146.54, 1174.55, 1179.87, 1200.17, 1205.81, 1214.27, 1241.24, 1258.24, 1274.02, 1296.2, 1303.22, 1314.29, 1338.2, 1350.58, 1353.67, 1387.31, 1408.76, 1410.99, 1418.2, 1447.13, 1455.78, 1457.49, 1476.51, 1485.14, 1486.42, 1504.15, 1509.86, 1520.22, 1527.29, 1535.82, 1545.65, 1662.16, 1667.51, 1676.44, 1688.76, 1762.66, 3058.91, 3067.55, 3079.4, 3096.36, 3137.01, 3146.63, 3148.06, 3154.72, 3176.3, 3188.43, 3196.81, 3198.55, 3206.77, 3208.68, 3210.23, 3217.77, 3224.39, 3227.69]; program: ORCA; DOI: 10.1021/jacs.4c17080
O     -2.908502  1.824121 -1.014629
O      2.628817  0.988117  2.119728
H     -0.170827  3.444737  0.423088
C      0.847818  1.161461 -1.266605
H     -1.593034  2.700784  1.215144
H      1.672415 -0.648993 -3.088742
C      1.667847 -0.074791 -1.032892
C      2.016992 -0.896880 -2.094400
C     -1.233917  3.240510  0.346962
C      1.778143  0.468565  1.425618
C      2.124366 -0.388910  0.244418
C      2.807602 -2.017199 -1.890339
S     -1.548381  2.261647 -1.092903
H      3.069804 -2.650270 -2.725340
C      2.938794 -1.492816  0.446604
C      3.273257 -2.313196 -0.618633
H      0.496258  0.783325  3.799505
N     -0.580387  0.942210 -0.954969
H      3.307200 -1.700245  1.440409
H      3.900967 -3.177172 -0.457302
H     -1.786769  4.166497  0.219990
N      0.437963  0.629972  1.688360
C      0.112472  1.320392  2.932529
O     -1.066549  2.997176 -2.223549
H     -2.700819 -1.994779 -2.429673
H      0.562575  2.308414  2.930298
C     -1.004497 -0.150594 -0.137245
C     -0.520188 -0.294112  1.161298
H     -0.966283  1.404698  3.010286
C     -2.339182 -1.024736 -2.098296
C     -1.875224 -1.103179 -0.673506
H     -3.139174 -0.296309 -2.201975
H     -1.529826 -0.707109 -2.751655
C     -0.949576 -1.346200  1.955302
H     -0.559534 -1.445052  2.957730
C     -2.299824 -2.142118  0.145239
C     -1.855990 -2.260312  1.451382
H     -2.981102 -2.877553 -0.258645
H     -2.195275 -3.080270  2.067162
H      0.915766  1.461464 -2.307005
H      1.245801  1.978712 -0.662749
