47
charge: 0; multiplicity: 1; energy: -1335.330057114212; SMILES: CNC(=O)[C@@H](C)Nc1c(N[C@@H](C)CN=P(C)(C)C)c(=O)c1=O; frequencies: [0.0, 0.0, 0.0, 0.0, 0.0, 0.0, 21.96, 29.22, 42.25, 53.59, 62.15, 66.33, 75.22, 91.23, 102.92, 110.34, 112.65, 141.64, 157.4, 168.79, 175.21, 187.61, 194.85, 205.98, 210.79, 217.69, 222.18, 236.55, 240.47, 249.46, 263.19, 279.02, 280.73, 301.12, 318.21, 323.78, 341.86, 361.87, 373.39, 400.48, 426.45, 462.48, 494.76, 509.78, 582.14, 616.01, 631.55, 643.54, 654.94, 661.62, 696.93, 724.12, 737.51, 757.68, 772.61, 802.12, 805.47, 820.3, 846.22, 858.63, 873.42, 878.11, 889.05, 929.47, 940.46, 946.25, 948.05, 954.04, 1008.5, 1038.74, 1056.8, 1082.4, 1086.67, 1123.06, 1141.07, 1142.74, 1154.66, 1180.38, 1198.0, 1200.07, 1254.14, 1270.74, 1286.49, 1312.44, 1316.75, 1323.28, 1326.39, 1344.47, 1359.81, 1380.15, 1389.72, 1399.44, 1412.67, 1413.91, 1441.39, 1448.86, 1451.89, 1453.6, 1455.21, 1457.52, 1464.88, 1475.94, 1478.16, 1479.89, 1482.58, 1489.63, 1493.1, 1495.02, 1504.31, 1511.19, 1535.66, 1600.04, 1661.03, 1767.7, 1789.69, 1891.19, 2960.9, 2990.23, 3055.39, 3063.24, 3064.61, 3066.62, 3075.27, 3078.09, 3110.03, 3119.39, 3125.12, 3129.34, 3143.79, 3147.08, 3147.87, 3151.7, 3154.9, 3155.03, 3161.84, 3163.27, 3167.08, 3174.81, 3554.96, 3596.84, 3607.21]; program: ORCA; DOI: 10.1021/jacs.4c17080
H      0.630125 -0.931767  4.963532
C      1.282964 -0.101312  4.689163
H      1.287268  0.616147  5.506089
H      2.289172 -0.498619  4.570419
C      0.814960  0.542132  3.397735
H      1.431384  1.405703  3.156683
N     -0.547551  1.055183  3.565380
C     -0.992303  2.030257  2.766480
C     -0.320540  3.105594  2.009809
C     -1.699187  3.529535  1.531940
O     -2.149144  4.340592  0.745313
O      0.819315  3.452697  1.820686
C     -2.250761  2.456331  2.357434
N     -3.508300  2.031338  2.603164
C     -4.622810  2.542368  1.799963
H     -4.424209  3.597343  1.629491
C     -5.926785  2.356024  2.547920
H     -6.752965  2.767453  1.972913
H     -6.123890  1.295900  2.692710
H     -5.880372  2.855880  3.512300
C     -4.651866  1.799439  0.457772
N     -4.012750  2.423881 -0.547666
C     -3.864181  1.784309 -1.837682
H     -3.427166  0.792613 -1.728587
H     -3.221130  2.398345 -2.460667
O     -5.181864  0.705872  0.347330
C      0.861745 -0.433650  2.212256
N      0.250318  0.136439  1.042717
P      1.022157  0.545525 -0.248805
H     -1.224874  0.361187  3.841529
H     -3.620243  1.079251  2.914270
H     -3.502245  3.270525 -0.340545
H      0.327815 -1.344455  2.512426
H      1.912189 -0.733400  2.089384
C      1.396901 -0.807534 -1.401997
C      2.625735  1.354038 -0.022973
C      0.009272  1.687936 -1.194392
H     -4.829433  1.668004 -2.326628
H      1.902552 -0.449917 -2.297201
H      0.466687 -1.298864 -1.679094
H      2.033785 -1.533946 -0.899694
H      3.072877  1.612247 -0.980993
H      2.477380  2.251669  0.572405
H      3.298948  0.680409  0.505167
H      0.419204  1.834718 -2.191409
H     -0.993313  1.274216 -1.267520
H     -0.035448  2.643752 -0.678831
