43
charge: 0; multiplicity: 1; energy: -1853.660505139541; SMILES: Cc1cccc(N(C)C(=O)c2ccccc2CCl)c1NS(C)(=O)=O; frequencies: [0.0, 0.0, 0.0, 0.0, 0.0, 0.0, 32.09, 42.87, 44.45, 68.29, 74.83, 81.93, 87.55, 89.36, 95.98, 108.94, 133.31, 151.1, 157.79, 172.62, 206.73, 230.37, 242.95, 268.02, 269.69, 274.34, 298.16, 318.7, 335.48, 355.63, 372.08, 378.35, 396.62, 429.26, 433.49, 475.27, 487.92, 501.57, 523.05, 537.15, 561.91, 582.03, 591.14, 596.0, 620.63, 668.66, 699.25, 712.2, 748.01, 758.24, 791.13, 798.93, 812.33, 820.65, 829.24, 852.79, 857.34, 901.8, 920.32, 931.07, 934.21, 948.51, 987.73, 989.43, 998.81, 1009.32, 1024.38, 1027.13, 1064.62, 1072.51, 1085.64, 1117.24, 1131.93, 1154.39, 1163.79, 1181.18, 1192.83, 1193.23, 1198.7, 1220.62, 1243.56, 1250.45, 1288.24, 1296.14, 1297.74, 1317.27, 1335.22, 1353.51, 1361.99, 1374.89, 1416.32, 1421.51, 1433.06, 1453.35, 1459.41, 1465.02, 1482.84, 1487.71, 1488.87, 1492.21, 1495.39, 1519.17, 1526.7, 1540.28, 1548.32, 1659.26, 1671.82, 1680.29, 1684.87, 1732.2, 3060.14, 3082.89, 3086.45, 3122.53, 3138.94, 3147.69, 3155.74, 3186.47, 3188.67, 3194.83, 3198.16, 3198.6, 3208.46, 3209.12, 3221.68, 3223.66, 3234.34, 3241.73, 3576.93]; program: ORCA; DOI: 10.1021/jacs.4c17080
O     -2.415492  1.937562  1.241761
O      2.148813  1.639735  1.299225
H     -0.129832  3.582227 -0.839393
C      2.102039  1.643765 -1.692023
H      0.138030  3.102818  0.868062
H      2.824833 -0.330907 -3.314057
C      2.203907  0.188722 -1.339652
C      2.622245 -0.705326 -2.320365
C     -0.589963  3.428521  0.131729
C      1.517541  0.621791  1.060807
C      1.911796 -0.295629 -0.064259
C      2.773552 -2.051575 -2.045926
S     -1.839621  2.198689 -0.044431
H      3.104874 -2.726394 -2.821578
C      2.075558 -1.651575  0.207576
C      2.507771 -2.527026 -0.770109
H     -0.568061  1.726066  2.889355
N     -0.973371  0.845793 -0.469270
H      1.864555 -2.016276  1.200654
H      2.634793 -3.574212 -0.538712
H     -1.096727  4.333589  0.454268
N      0.478979  0.213522  1.848997
C      0.184824  0.961505  3.068203
O     -2.664926  2.577529 -1.154118
H     -2.275832 -0.899134 -2.406928
H     -0.194543  0.273690  3.818687
C     -1.234051 -0.383137  0.210412
C     -0.518852 -0.680884  1.366940
H      1.100060  1.422663  3.420068
C     -2.941932 -0.955598 -1.544794
C     -2.182444 -1.276581 -0.288754
H     -3.683230 -1.723097 -1.748420
H     -3.447737  0.004620 -1.465768
C     -0.792509 -1.845614  2.066943
H     -0.238230 -2.058339  2.969568
C     -2.414890 -2.452707  0.410306
C     -1.740837 -2.729933  1.589533
H     -3.150228 -3.149535  0.033802
H     -1.948240 -3.642211  2.129207
Cl      0.906173  1.931764 -3.018091
H     -0.902414  0.775774 -1.475033
H      3.046872  2.017128 -2.071228
H      1.796748  2.248215 -0.853199
