90
charge: 0; multiplicity: 1; energy: -3189.044936666615; SMILES: CNC(=O)[C@@H](C)Nc1c(N[C@@H](C)C[NH+]=P(C)(C)C)c(=O)c1=O.Cc1cccc(N(C)C(=O)c2ccccc2CCl)c1N=[S@](C)(=O)[O-]; frequencies: [0.0, 0.0, 0.0, 0.0, 0.0, 0.0, -19.74, 18.72, 24.3, 31.77, 40.82, 43.36, 45.82, 49.1, 58.85, 63.03, 65.73, 69.89, 72.1, 80.74, 83.28, 84.89, 86.81, 95.03, 95.71, 98.0, 102.52, 108.25, 112.16, 117.87, 122.17, 135.27, 145.41, 153.28, 156.2, 157.08, 167.24, 179.61, 187.47, 191.81, 204.47, 210.86, 216.03, 218.02, 227.55, 233.43, 234.31, 234.84, 235.93, 241.82, 246.55, 253.95, 259.5, 262.63, 270.16, 277.92, 280.94, 285.21, 305.49, 307.35, 310.78, 315.02, 324.38, 334.32, 343.85, 345.91, 358.37, 368.97, 376.65, 380.06, 384.4, 402.39, 412.52, 417.93, 442.02, 457.35, 461.23, 479.38, 507.24, 511.79, 524.46, 537.41, 547.25, 568.29, 580.97, 585.59, 595.21, 597.33, 610.44, 624.37, 629.74, 634.78, 658.78, 668.39, 670.79, 674.41, 691.73, 696.12, 721.56, 751.22, 757.8, 769.98, 772.85, 779.17, 785.33, 786.01, 799.2, 801.64, 805.94, 813.07, 816.14, 826.1, 835.23, 839.54, 849.53, 865.08, 873.33, 876.03, 882.91, 899.63, 902.97, 928.0, 937.74, 939.35, 941.09, 955.62, 956.16, 960.29, 970.31, 978.64, 979.71, 986.79, 993.67, 1010.29, 1016.59, 1016.87, 1030.21, 1043.2, 1059.94, 1065.32, 1075.72, 1083.19, 1086.45, 1100.18, 1121.25, 1126.56, 1138.24, 1142.79, 1146.09, 1147.38, 1151.1, 1155.68, 1165.08, 1168.8, 1178.21, 1189.82, 1192.81, 1197.46, 1199.14, 1217.2, 1217.7, 1243.25, 1247.36, 1263.59, 1272.12, 1274.92, 1282.13, 1289.51, 1295.38, 1304.68, 1316.3, 1324.24, 1327.29, 1328.08, 1331.78, 1341.3, 1343.89, 1361.44, 1366.04, 1383.27, 1398.15, 1406.69, 1410.96, 1415.91, 1419.16, 1430.73, 1439.12, 1444.58, 1448.37, 1449.21, 1450.05, 1451.53, 1452.22, 1456.36, 1460.17, 1464.64, 1473.5, 1476.58, 1477.94, 1481.73, 1482.26, 1482.67, 1486.27, 1486.64, 1489.64, 1491.71, 1495.26, 1498.84, 1503.78, 1509.22, 1512.0, 1518.08, 1520.24, 1530.52, 1554.96, 1570.64, 1615.66, 1652.36, 1656.29, 1663.49, 1667.12, 1681.33, 1693.8, 1751.06, 1768.33, 1885.6, 3062.28, 3066.1, 3068.11, 3070.39, 3071.72, 3074.54, 3078.57, 3082.17, 3089.42, 3096.61, 3107.24, 3119.08, 3120.59, 3127.74, 3140.21, 3150.98, 3152.38, 3155.42, 3155.89, 3159.11, 3160.29, 3162.62, 3164.27, 3165.78, 3171.38, 3173.32, 3174.79, 3178.94, 3184.12, 3186.33, 3196.14, 3196.39, 3201.42, 3202.97, 3204.65, 3213.26, 3222.65, 3224.76, 3265.92, 3383.03, 3478.37, 3497.87, 3522.39, 3528.88]; program: ORCA; DOI: 10.1021/jacs.4c17080
H      0.310045 -0.301219  5.441701
C      0.906454  0.516541  5.040974
H      0.693384  1.419704  5.607141
H      1.958931  0.267274  5.166763
C      0.583019  0.719789  3.569534
H      1.119636  1.579140  3.175263
N     -0.838553  1.000092  3.404672
C     -1.276507  1.810764  2.447846
C     -0.604072  2.705587  1.497355
C     -1.968872  3.141374  1.024539
O     -2.416657  3.907750  0.190632
O      0.551799  2.934451  1.191269
C     -2.544890  2.194371  1.986383
N     -3.784541  1.832350  2.305547
C     -4.964948  2.502741  1.763735
H     -4.683183  3.536891  1.575095
C     -6.090346  2.438215  2.777501
H     -6.975315  2.935290  2.389564
H     -6.354681  1.401915  2.973915
H     -5.783845  2.917405  3.704297
C     -5.402986  1.872343  0.430058
N     -4.688163  2.277362 -0.635368
C     -4.972247  1.786474 -1.966781
H     -5.209783  0.727525 -1.926171
H     -4.098281  1.938155 -2.593907
O     -6.307262  1.054730  0.365724
C      0.970253 -0.523733  2.769529
N      0.496938 -0.439165  1.390088
P      1.439188 -0.286175  0.074065
H     -1.464336  0.319612  3.819883
H     -3.909793  0.950958  2.793352
H     -3.977814  2.987440 -0.504797
H      0.537775 -1.400893  3.238273
H      2.051085 -0.649995  2.798690
C      2.057086 -1.840096 -0.559804
C      2.830028  0.752687  0.491525
C      0.479906  0.494866 -1.207675
H     -0.374055 -0.908752  1.173017
H     -5.822742  2.302542 -2.412305
O     -3.639845 -0.900095  3.100909
O     -1.178767 -2.029625 -0.288832
H     -4.963882 -2.648154  4.819800
C     -0.680480 -3.840703  2.416465
H     -4.040298 -1.453629  5.762649
H     -0.611191 -6.517577  2.406176
C     -1.225826 -4.753967  1.375099
C     -1.110342 -6.130290  1.529372
C     -3.977582 -2.362605  5.172424
C     -2.088984 -2.784974  0.077491
C     -1.871310 -4.258352  0.249532
C     -1.608593 -6.995412  0.573361
S     -2.958384 -2.016943  3.758489
H     -1.509781 -8.062540  0.709305
C     -2.373280 -5.125683 -0.712875
C     -2.234843 -6.492493 -0.559749
H     -3.378345 -0.706954 -1.006900
N     -2.812545 -3.298425  2.888408
H     -2.894408 -4.723201 -1.569846
H     -2.628137 -7.162562 -1.309919
H     -3.521766 -3.164810  5.742086
N     -3.333643 -2.341041  0.295489
C     -3.639918 -0.943597  0.021885
O     -1.642017 -1.666880  4.285263
H     -4.738220 -6.466980  3.936225
H     -4.698831 -0.784169  0.183154
C     -3.987139 -3.702859  2.214349
C     -4.284868 -3.191732  0.941978
H     -3.079943 -0.292959  0.686895
C     -4.478580 -5.413158  4.013714
C     -4.823460 -4.700446  2.734785
H     -3.416642 -5.325985  4.224587
H     -5.023155 -5.006405  4.865416
C     -5.441187 -3.541597  0.270752
H     -5.640555 -3.109155 -0.699181
C     -5.974588 -5.054201  2.039794
C     -6.307580 -4.461736  0.833972
H     -6.618414 -5.817740  2.455988
H     -7.213151 -4.743953  0.317966
Cl      1.237213 -4.013979  2.269873
H     -0.822458 -4.134553  3.436579
H     -0.788030 -2.794352  2.243821
H      2.677777 -1.666627 -1.437022
H      1.201438 -2.462107 -0.811963
H      2.630841 -2.341915  0.215588
H      3.402655  0.933781 -0.416061
H      2.449752  1.693866  0.883149
H      3.471079  0.261758  1.218629
H      1.050332  0.485834 -2.134410
H     -0.436602 -0.076278 -1.334858
H      0.261601  1.518086 -0.912926
