46
charge: 0; multiplicity: 1; energy: -1996.832047936105; SMILES: CC(C)(C)C(=O)N[S@]1(c2ccccc2)#[N+]S1(=O)([O-])c1ccc([N+](=O)[O-])cc1; frequencies: [0.0, 0.0, 0.0, 0.0, 0.0, 0.0, 13.44, 26.87, 28.98, 33.67, 45.82, 54.79, 71.08, 71.84, 77.77, 96.17, 99.56, 140.53, 153.4, 186.99, 195.81, 198.22, 209.56, 221.05, 245.95, 256.72, 259.84, 278.94, 293.43, 318.6, 324.69, 343.47, 356.18, 367.37, 376.29, 411.09, 412.73, 421.17, 425.51, 468.56, 472.75, 488.79, 499.23, 510.48, 524.53, 541.29, 585.28, 597.78, 626.28, 636.67, 641.12, 707.81, 714.62, 721.1, 755.4, 770.93, 775.97, 779.93, 785.37, 818.39, 862.37, 870.11, 875.84, 889.46, 899.03, 918.41, 953.24, 962.07, 962.31, 969.52, 1014.69, 1017.42, 1021.73, 1029.94, 1035.9, 1037.68, 1041.24, 1047.9, 1059.75, 1071.37, 1113.6, 1120.22, 1123.87, 1126.97, 1136.96, 1143.41, 1179.17, 1196.86, 1203.95, 1205.93, 1245.21, 1262.29, 1294.77, 1317.62, 1318.99, 1337.96, 1349.67, 1385.44, 1400.37, 1405.95, 1429.71, 1432.86, 1445.08, 1447.69, 1476.23, 1478.3, 1482.28, 1495.42, 1498.27, 1511.57, 1515.74, 1529.07, 1532.57, 1642.57, 1666.32, 1668.79, 1669.49, 1695.7, 1813.68, 3059.42, 3062.25, 3075.73, 3122.96, 3131.22, 3136.3, 3145.06, 3154.63, 3161.2, 3202.91, 3210.33, 3220.48, 3229.46, 3234.24, 3244.74, 3250.09, 3257.44, 3259.06, 3643.57]; program: ORCA
O      4.450144 -1.289891 -0.924672
C      3.707683 -2.162553 -1.291524
C      2.373362 -1.925559 -1.999061
C      2.247832 -2.819781 -3.237904
C      1.249459 -2.238994 -1.002243
C      2.304066 -0.459731 -2.416077
N      4.003382 -3.507918 -1.040550
S      5.499794 -4.086618 -0.522285
C      5.685345 -3.169669  0.990695
C      4.693704 -3.321274  1.947564
C      4.831405 -2.672589  3.162022
C      5.956802 -1.898267  3.410225
C      6.944533 -1.771964  2.446078
C      6.816930 -2.412159  1.222506
N      6.678559 -3.488855 -1.393987
S      6.942794 -4.251316 -2.792247
C      6.096861 -3.207408 -3.965726
C      6.023057 -1.837702 -3.759874
C      5.383102 -1.043059 -4.695162
C      4.841156 -1.645984 -5.814678
N      4.126899 -0.802849 -6.796742
O      3.998809  0.375505 -6.535583
O      3.706033 -1.341886 -7.798823
C      4.916369 -3.007773 -6.040197
C      5.550900 -3.797331 -5.096520
O      8.336935 -4.169987 -3.096013
O      6.271013 -5.528655 -2.844870
H      2.121504 -3.873509 -2.988718
H      3.115583 -2.722115 -3.886521
H      1.366776 -2.522743 -3.803473
H      1.269623 -3.280271 -0.683879
H      0.286248 -2.049259 -1.472863
H      1.327766 -1.607747 -0.118709
H      3.080208 -0.223355 -3.140204
H      2.432849  0.196599 -1.560329
H      1.336020 -0.260499 -2.872290
H      3.464627 -4.211499 -1.517619
H      3.821122 -3.924492  1.742409
H      4.063195 -2.773789  3.914033
H      6.063213 -1.394302  4.359609
H      7.818926 -1.169293  2.641273
H      7.565232 -2.321947  0.452221
H      6.436441 -1.405979 -2.862762
H      5.295031  0.022431 -4.563419
H      4.475774 -3.429076 -6.928409
H      5.613582 -4.867012 -5.222431
