46
charge: 0; multiplicity: 1; energy: -1996.832403054831; SMILES: CC(C)(C)C(=O)N[S@@]1(c2ccccc2)#[N+]S1(=O)([O-])c1ccc([N+](=O)[O-])cc1; frequencies: [0.0, 0.0, 0.0, 0.0, 0.0, 0.0, 9.91, 17.87, 23.89, 26.74, 31.33, 44.82, 45.68, 54.63, 67.92, 78.7, 111.76, 142.12, 144.84, 157.97, 185.74, 210.89, 215.0, 238.07, 248.29, 261.81, 267.22, 276.77, 281.43, 295.95, 316.23, 344.88, 353.07, 368.55, 376.95, 384.36, 413.22, 419.98, 431.4, 444.54, 475.0, 479.64, 486.01, 499.82, 525.84, 539.26, 582.2, 586.83, 625.18, 626.34, 638.47, 713.1, 715.0, 723.21, 753.02, 768.24, 775.41, 780.44, 793.47, 817.12, 871.58, 875.13, 883.76, 889.27, 898.68, 932.67, 954.25, 963.24, 973.25, 977.44, 1016.34, 1019.75, 1026.9, 1029.98, 1033.05, 1041.58, 1042.31, 1049.64, 1052.87, 1058.87, 1111.65, 1120.62, 1123.84, 1129.08, 1142.17, 1148.52, 1179.77, 1200.09, 1205.06, 1209.06, 1245.57, 1262.88, 1291.28, 1315.55, 1318.34, 1334.64, 1353.27, 1402.81, 1403.49, 1407.4, 1426.27, 1434.87, 1444.85, 1448.53, 1476.06, 1478.76, 1482.44, 1493.85, 1498.39, 1509.9, 1516.48, 1528.64, 1531.3, 1643.31, 1664.29, 1665.89, 1669.69, 1696.94, 1782.71, 3059.19, 3063.04, 3072.83, 3123.91, 3132.63, 3136.55, 3141.2, 3143.54, 3160.85, 3202.44, 3209.04, 3219.42, 3228.28, 3232.96, 3234.68, 3238.52, 3256.5, 3257.07, 3627.8]; program: ORCA
O      4.420833  0.534602 -1.180954
C      3.817283 -0.493424 -1.387497
C      2.410556 -0.565616 -1.980150
C      2.539616 -1.041585 -3.432876
C      1.531521 -1.538962 -1.186632
C      1.798628  0.831288 -1.942567
N      4.399985 -1.714270 -1.105884
S      6.040816 -1.858044 -0.743512
C      5.953140 -2.056540  1.023123
C      6.399147 -3.216913  1.626623
C      6.340831 -3.305224  3.010755
C      5.853241 -2.244822  3.758177
C      5.421530 -1.081548  3.132248
C      5.474180 -0.977013  1.753653
N      6.364897 -3.332855 -1.240759
S      7.382702 -3.415173 -2.507872
C      6.343104 -3.010005 -3.897390
C      6.347785 -1.715187 -4.391955
C      5.496982 -1.381440 -5.432711
C      4.668812 -2.360485 -5.944880
N      3.730324 -1.997647 -7.027830
O      3.690457 -0.833335 -7.368005
O      3.050002 -2.883470 -7.501509
C      4.664774 -3.661191 -5.473545
C      5.515926 -3.986903 -4.432855
O      8.389414 -2.391258 -2.441962
O      7.748014 -4.791203 -2.634507
H      3.014342 -2.019789 -3.497110
H      3.126648 -0.338680 -4.020072
H      1.549751 -1.114538 -3.880304
H      1.844243 -2.576537 -1.300003
H      0.509930 -1.474705 -1.556075
H      1.523657 -1.295124 -0.125506
H      2.420354  1.542688 -2.477994
H      1.691445  1.185031 -0.919218
H      0.813903  0.805241 -2.405982
H      3.911448 -2.588313 -1.217127
H      6.776153 -4.024199  1.018272
H      6.680869 -4.204674  3.502010
H      5.814208 -2.319946  4.835059
H      5.050810 -0.254278  3.718876
H      5.151148 -0.077286  1.248468
H      7.019313 -0.985010 -3.967618
H      5.466760 -0.385287 -5.841833
H      4.006845 -4.389204 -5.918327
H      5.554188 -4.990725 -4.038792
