46
charge: 0; multiplicity: 1; energy: -1996.775068573632; SMILES: CC(C)(C)C(=O)N[S@@]1(c2ccccc2)#[N+]S1(=O)([O-])c1ccc([N+](=O)[O-])cc1; frequencies: [0.0, 0.0, 0.0, 0.0, 0.0, 0.0, -414.23, 16.06, 20.28, 24.36, 25.75, 38.55, 45.26, 58.58, 62.78, 83.38, 102.02, 122.13, 140.64, 152.41, 179.9, 183.53, 201.18, 218.19, 231.79, 248.05, 252.22, 262.63, 271.82, 289.81, 311.25, 323.44, 353.56, 362.27, 376.7, 391.34, 408.85, 416.7, 423.52, 453.01, 474.46, 477.71, 493.91, 501.51, 524.69, 539.07, 565.23, 589.85, 619.87, 623.12, 637.75, 688.52, 705.03, 711.85, 741.22, 755.7, 772.12, 774.16, 783.74, 810.37, 854.21, 870.65, 887.01, 891.0, 898.88, 915.87, 934.46, 953.8, 961.56, 971.12, 976.25, 1003.13, 1012.64, 1018.12, 1026.89, 1028.13, 1040.1, 1041.73, 1048.93, 1060.88, 1102.18, 1115.02, 1121.32, 1124.73, 1130.54, 1141.76, 1177.16, 1201.75, 1205.07, 1208.36, 1245.86, 1260.44, 1295.05, 1306.86, 1318.64, 1337.25, 1353.76, 1396.83, 1403.87, 1408.21, 1423.45, 1435.53, 1444.16, 1449.11, 1475.27, 1479.26, 1481.08, 1495.08, 1499.69, 1506.77, 1515.55, 1523.35, 1530.95, 1642.08, 1659.3, 1664.08, 1669.99, 1695.91, 1838.45, 3059.57, 3065.11, 3075.65, 3126.19, 3130.9, 3137.82, 3144.56, 3148.66, 3159.13, 3206.28, 3216.24, 3227.82, 3231.95, 3235.78, 3247.53, 3250.88, 3257.05, 3262.17, 3636.85]; program: ORCA
O      6.765140  4.095720  2.504570
C      5.791234  4.792395  2.541849
C      4.502387  4.467166  3.290955
C      4.740700  3.216088  4.131357
C      4.120335  5.637370  4.206145
C      3.390329  4.202902  2.266714
N      5.756819  6.014091  1.833191
S      7.084251  6.685946  1.156479
C      7.450115  6.063046 -0.444885
C      8.660917  6.424134 -1.010420
C      8.951898  5.951965 -2.280425
C      8.059163  5.131045 -2.952996
C      6.859882  4.775303 -2.353894
C      6.539350  5.243083 -1.089782
N      7.871463  7.907160  1.835684
S      9.188493  7.438687  2.721718
C      8.489092  6.759102  4.211387
C      8.585155  5.401647  4.455465
C      7.986608  4.871736  5.588600
C      7.316696  5.726848  6.439126
N      6.634669  5.157984  7.621045
O      6.624165  3.949325  7.735462
O      6.114385  5.932375  8.396840
C      7.233775  7.093010  6.220990
C      7.828565  7.612195  5.087764
O      9.920588  6.379641  2.080130
O      9.839256  8.663655  3.072329
H      5.510425  3.388377  4.880043
H      5.056611  2.381677  3.511422
H      3.818587  2.946526  4.642954
H      4.949595  5.914527  4.853923
H      3.283142  5.339431  4.834161
H      3.812104  6.523579  3.653015
H      3.657632  3.380391  1.605405
H      3.171955  5.078309  1.655980
H      2.476728  3.931877  2.792547
H      4.910252  6.556912  1.828167
H      9.358605  7.036755 -0.462544
H      9.892128  6.221988 -2.737520
H      8.300067  4.763168 -3.938992
H      6.163917  4.130786 -2.870189
H      5.609192  4.970055 -0.616808
H      9.101015  4.769809  3.751519
H      8.025303  3.817257  5.804535
H      6.709670  7.717368  6.925248
H      7.788236  8.669446  4.875276
