46
charge: 1; multiplicity: 2; energy: -1996.518149633903; SMILES: CC(C)(C)C(=O)N[S@@+](N=[S@@](=O)([O-])c1ccc([N+](=O)[O-])cc1)c1ccccc1; frequencies: [0.0, 0.0, 0.0, 0.0, 0.0, 0.0, 13.24, 19.23, 31.38, 35.98, 43.4, 49.27, 60.11, 70.51, 87.91, 94.09, 113.4, 136.26, 156.36, 163.91, 179.68, 193.33, 211.29, 221.28, 246.07, 260.14, 261.58, 264.96, 270.72, 289.59, 318.29, 324.51, 336.93, 353.6, 362.07, 375.83, 403.17, 406.52, 419.76, 423.39, 454.87, 467.85, 470.07, 485.28, 509.88, 540.16, 568.29, 588.03, 605.14, 620.56, 625.12, 638.26, 696.84, 703.89, 713.72, 761.82, 763.49, 772.35, 776.0, 810.02, 860.48, 865.05, 872.14, 884.88, 886.82, 897.69, 902.57, 950.31, 961.27, 965.06, 970.68, 1013.06, 1017.73, 1019.89, 1020.51, 1028.69, 1039.62, 1042.2, 1053.95, 1054.65, 1072.1, 1097.27, 1120.51, 1121.25, 1129.36, 1143.7, 1190.25, 1202.84, 1211.04, 1232.1, 1234.48, 1263.0, 1280.58, 1320.9, 1324.53, 1341.25, 1355.87, 1375.67, 1403.46, 1409.92, 1435.27, 1443.17, 1449.13, 1459.03, 1475.95, 1477.01, 1482.89, 1497.43, 1498.59, 1510.96, 1516.6, 1521.02, 1528.81, 1651.12, 1655.46, 1660.02, 1667.79, 1703.21, 1822.41, 3060.75, 3066.84, 3084.12, 3128.39, 3139.36, 3149.8, 3151.5, 3157.07, 3167.38, 3208.32, 3219.77, 3231.85, 3232.35, 3238.36, 3239.29, 3254.17, 3257.57, 3262.45, 3628.08]; program: ORCA
O      4.552824 -1.731821 -1.722814
C      3.694257 -2.567830 -1.745169
C      2.233650 -2.364483 -2.107171
C      1.682220 -3.534631 -2.927722
C      1.479252 -2.255841 -0.770080
C      2.103563 -1.058359 -2.887601
N      4.029191 -3.882630 -1.301495
S      5.449581 -4.176749 -0.538264
C      5.539143 -3.069340  0.829091
C      4.880792 -3.504746  1.972559
C      4.912318 -2.694478  3.093842
C      5.607089 -1.493342  3.057395
C      6.270974 -1.088219  1.906230
C      6.243095 -1.875628  0.769391
N      6.729961 -3.831407 -1.421925
S      6.862335 -4.536917 -3.009304
C      6.289323 -3.195870 -3.968917
C      7.033662 -2.023424 -3.987102
C      6.542991 -0.939377 -4.692203
C      5.338440 -1.079474 -5.353848
N      4.782510  0.097906 -6.067976
O      5.509882  1.052661 -6.206369
O      3.633576  0.013470 -6.444531
C      4.613350 -2.255999 -5.375252
C      5.095759 -3.337304 -4.662242
O      8.256762 -4.721018 -3.167431
O      5.925125 -5.615102 -3.053442
H      1.615838 -4.461840 -2.357624
H      2.269234 -3.712067 -3.826568
H      0.668705 -3.293427 -3.238642
H      1.556011 -3.170881 -0.184801
H      0.426510 -2.076078 -0.975978
H      1.856180 -1.426038 -0.175611
H      2.614981 -1.113191 -3.845550
H      2.515930 -0.224146 -2.327783
H      1.050792 -0.862919 -3.077415
H      3.451036 -4.682819 -1.505569
H      4.362912 -4.453249  1.993226
H      4.409463 -3.008147  3.995523
H      5.637311 -0.868500  3.937509
H      6.810087 -0.153470  1.891213
H      6.741468 -1.573895 -0.136036
H      7.974780 -1.962770 -3.462127
H      7.072324 -0.001667 -4.734778
H      3.694496 -2.307565 -5.936231
H      4.570964 -4.279505 -4.648139
