46
charge: 1; multiplicity: 2; energy: -1996.512909129685; SMILES: CC(C)(C)C(=O)N[S@+](N=[S@@](=O)([O-])c1ccc([N+](=O)[O-])cc1)c1ccccc1; frequencies: [0.0, 0.0, 0.0, 0.0, 0.0, 0.0, 13.16, 22.17, 26.18, 33.19, 47.94, 54.25, 59.02, 63.84, 69.67, 89.69, 110.6, 123.3, 146.3, 155.18, 167.52, 206.01, 217.89, 236.26, 250.78, 252.45, 260.71, 268.84, 272.34, 293.73, 304.2, 320.29, 357.18, 359.99, 371.13, 393.15, 406.39, 422.8, 429.09, 446.43, 465.36, 470.31, 474.06, 485.77, 498.9, 538.35, 546.79, 579.26, 591.79, 619.6, 627.94, 635.16, 700.22, 703.28, 709.43, 762.89, 763.8, 771.59, 775.16, 807.27, 864.34, 876.12, 881.24, 886.24, 894.05, 903.93, 934.73, 951.41, 963.02, 968.85, 972.58, 1014.04, 1020.58, 1022.3, 1024.56, 1032.28, 1037.46, 1042.24, 1055.52, 1055.88, 1074.08, 1093.87, 1119.4, 1123.34, 1129.62, 1141.85, 1190.36, 1204.89, 1212.16, 1233.54, 1234.45, 1265.53, 1280.19, 1319.17, 1322.87, 1338.53, 1356.3, 1377.47, 1402.02, 1410.73, 1435.5, 1442.37, 1448.78, 1457.98, 1477.54, 1479.0, 1484.94, 1497.25, 1500.0, 1511.02, 1518.38, 1521.52, 1528.29, 1648.43, 1655.33, 1662.27, 1668.15, 1703.08, 1832.41, 3055.42, 3060.61, 3082.85, 3126.46, 3131.79, 3151.31, 3152.87, 3156.72, 3169.89, 3211.66, 3221.18, 3231.41, 3236.01, 3238.96, 3245.39, 3248.96, 3255.7, 3259.42, 3603.34]; program: ORCA
O      4.943132  0.369530 -2.085013
C      4.156669 -0.513774 -1.894274
C      2.669496 -0.490187 -2.197608
C      2.141632 -1.869144 -2.605828
C      1.985293 -0.031184 -0.897281
C      2.416929  0.527551 -3.308563
N      4.621010 -1.696910 -1.242983
S      6.107265 -1.668263 -0.550264
C      5.798907 -2.336940  1.067700
C      6.514985 -3.422218  1.545133
C      6.250247 -3.850459  2.836834
C      5.309570 -3.193005  3.616147
C      4.618845 -2.095502  3.118339
C      4.863334 -1.649923  1.831668
N      7.135214 -2.697562 -1.165934
S      7.798627 -2.786746 -2.734751
C      6.475752 -2.557415 -3.862108
C      6.234699 -1.284502 -4.356403
C      5.192475 -1.108267 -5.251225
C      4.445800 -2.210975 -5.615196
N      3.293321 -2.010887 -6.531769
O      2.992360 -0.866144 -6.789804
O      2.729809 -3.002646 -6.932570
C      4.699776 -3.489687 -5.151474
C      5.736672 -3.667543 -4.254623
O      8.655867 -1.650560 -2.751964
O      8.254285 -4.126714 -2.801219
H      2.114682 -2.576205 -1.775124
H      2.721934 -2.302178 -3.417801
H      1.115997 -1.763070 -2.950190
H      2.157788 -0.731789 -0.079960
H      0.912060  0.023054 -1.065171
H      2.334158  0.955371 -0.599641
H      2.851892  0.204020 -4.251616
H      2.832151  1.497681 -3.053067
H      1.344512  0.634073 -3.454222
H      4.011828 -2.480016 -1.056845
H      7.252465 -3.916929  0.934138
H      6.785292 -4.700614  3.231478
H      5.116161 -3.534250  4.622005
H      3.897065 -1.580194  3.733232
H      4.341647 -0.788641  1.439715
H      6.845780 -0.451008 -4.048931
H      4.960331 -0.139162 -5.660952
H      4.097410 -4.314684 -5.495149
H      5.985392 -4.648942 -3.881416
