46
charge: 1; multiplicity: 2; energy: -1996.490096084917; SMILES: CC(C)(C)C(=O)N[S@+](N=[S@@](=O)([O-])c1ccc([N+](=O)[O-])cc1)c1ccccc1; frequencies: [0.0, 0.0, 0.0, 0.0, 0.0, 0.0, -329.17, 11.43, 19.14, 20.31, 27.44, 32.41, 44.97, 50.47, 59.05, 67.51, 68.01, 116.06, 140.05, 145.31, 160.49, 178.82, 188.83, 203.88, 224.75, 249.51, 256.13, 260.76, 267.08, 295.66, 303.79, 312.49, 341.45, 348.92, 371.17, 391.91, 401.63, 405.11, 417.75, 441.8, 452.09, 464.67, 473.64, 479.62, 492.92, 536.86, 542.73, 587.78, 612.57, 615.81, 630.29, 634.68, 685.13, 700.34, 716.64, 757.87, 763.35, 765.61, 770.55, 799.06, 852.13, 859.83, 871.18, 887.1, 899.0, 946.33, 953.67, 960.86, 961.16, 973.7, 1001.29, 1016.43, 1018.97, 1020.73, 1029.69, 1036.8, 1043.53, 1045.33, 1051.35, 1061.72, 1068.45, 1113.07, 1122.42, 1128.29, 1139.4, 1145.6, 1189.06, 1204.24, 1213.91, 1227.4, 1241.4, 1256.92, 1282.84, 1318.9, 1322.12, 1338.11, 1357.41, 1363.42, 1407.02, 1413.05, 1439.66, 1441.96, 1443.93, 1454.41, 1474.08, 1477.12, 1480.69, 1495.77, 1500.5, 1507.26, 1507.95, 1514.39, 1528.4, 1630.29, 1644.26, 1656.46, 1666.83, 1705.01, 1850.11, 3059.84, 3064.34, 3080.07, 3127.05, 3133.46, 3148.94, 3150.65, 3155.63, 3161.67, 3220.37, 3225.64, 3232.53, 3239.61, 3240.52, 3241.25, 3245.09, 3258.78, 3259.64, 3598.86]; program: ORCA
O      6.065433  4.077740  2.761278
C      5.056829  4.606385  2.402693
C      3.628833  4.213689  2.716844
C      3.665461  3.077634  3.736539
C      2.872684  5.419360  3.292812
C      2.966308  3.738078  1.414142
N      5.187006  5.753683  1.527568
S      6.671126  6.320979  1.280996
C      7.316176  6.039443 -0.303208
C      8.376920  6.844334 -0.708562
C      8.915088  6.602281 -1.957829
C      8.395862  5.594925 -2.762137
C      7.332171  4.810663 -2.328464
C      6.776232  5.019402 -1.081619
N      7.339031  7.118236  2.399012
S      9.011834  6.867609  2.773968
C      8.880437  6.611738  4.502276
C      8.598280  5.331032  4.958570
C      8.488970  5.126223  6.321571
C      8.667032  6.206790  7.165607
N      8.539638  5.984812  8.629965
O      8.242503  4.868515  8.992457
O      8.736755  6.936672  9.350029
C      8.955965  7.481149  6.717807
C      9.061997  7.691164  5.353474
O      9.403595  5.660185  2.121736
O      9.633783  8.114119  2.492150
H      4.132010  3.397452  4.665198
H      4.218487  2.223615  3.355257
H      2.646873  2.763866  3.952456
H      3.386086  5.840489  4.155200
H      1.889101  5.088440  3.617224
H      2.712150  6.210759  2.560365
H      3.497807  2.887982  0.990234
H      2.910217  4.525918  0.663767
H      1.949354  3.422170  1.634673
H      4.400976  6.347549  1.306040
H      8.766234  7.626816 -0.074456
H      9.738620  7.206865 -2.304905
H      8.824038  5.418152 -3.737244
H      6.941764  4.027128 -2.959384
H      5.962780  4.410334 -0.720483
H      8.473701  4.516216  4.262627
H      8.275596  4.154020  6.733942
H      9.095177  8.280377  7.426939
H      9.293672  8.666871  4.956417
