52
charge: 0; multiplicity: 1; energy: -1151.895008637669; SMILES: CCO[C@]1(O)N(C)c2ccccc2C(=O)N1c1ccccc1C(C)(C)C; frequencies: [0.0, 0.0, 0.0, 0.0, 0.0, 0.0, 23.58, 33.91, 38.88, 49.86, 73.48, 78.15, 95.73, 109.73, 124.71, 130.51, 146.21, 159.6, 205.84, 219.01, 234.64, 245.64, 260.83, 263.77, 266.74, 273.36, 285.14, 292.79, 315.43, 352.29, 354.62, 365.65, 377.06, 386.45, 397.8, 401.7, 408.88, 415.49, 441.54, 465.48, 484.9, 512.85, 534.99, 541.67, 550.04, 574.32, 591.09, 597.56, 645.98, 661.53, 688.06, 719.27, 728.19, 742.24, 780.88, 787.73, 788.9, 815.83, 833.75, 853.43, 880.72, 887.29, 896.07, 898.21, 917.9, 945.25, 957.72, 965.05, 973.31, 996.11, 1000.46, 1018.35, 1021.02, 1024.46, 1049.87, 1054.3, 1077.27, 1085.61, 1094.7, 1104.22, 1118.21, 1127.3, 1146.29, 1153.54, 1158.96, 1166.05, 1180.41, 1186.26, 1186.98, 1197.6, 1233.8, 1237.63, 1242.8, 1258.07, 1261.0, 1286.31, 1310.18, 1311.5, 1321.24, 1329.13, 1335.86, 1349.46, 1396.11, 1397.36, 1401.35, 1403.5, 1428.69, 1431.2, 1443.55, 1473.4, 1480.8, 1482.23, 1483.92, 1487.29, 1491.77, 1497.05, 1499.47, 1505.56, 1510.94, 1514.17, 1522.92, 1523.79, 1535.3, 1547.91, 1550.35, 1652.49, 1659.91, 1682.4, 1689.78, 1765.45, 3034.07, 3043.42, 3056.35, 3062.0, 3068.79, 3069.26, 3083.35, 3104.63, 3123.05, 3127.51, 3134.26, 3134.99, 3141.49, 3144.47, 3146.4, 3174.84, 3198.72, 3199.15, 3207.18, 3215.53, 3218.47, 3226.59, 3232.22, 3237.25, 3241.09, 3821.19]; program: ORCA; DOI: 10.1002/chem.202401109
O     -2.619235  0.786904 -2.450425
C     -3.566113  0.242650 -1.917198
C     -3.776230 -1.222965 -1.932834
C     -5.006780 -1.764830 -1.542609
N     -5.986107 -0.922410 -1.043742
C     -7.315770 -1.435128 -0.782058
C     -5.518585  0.292946 -0.439509
O     -4.808748  0.080237  0.763074
C     -5.454973 -0.753988  1.720865
O     -6.626739  1.095504 -0.213272
C     -5.215639 -3.137620 -1.694914
C     -4.206445 -3.938247 -2.201245
C     -2.979173 -3.402861 -2.569036
C     -2.777974 -2.041497 -2.439506
N     -4.576154  0.957744 -1.322120
C     -4.449089  2.382742 -1.207895
C     -3.692667  2.844641 -0.131609
C     -3.551292  4.194109  0.115125
C     -4.181429  5.092524 -0.731923
C     -4.915605  4.627721 -1.805039
C     -5.069478  3.266440 -2.093579
C     -5.902929  2.918224 -3.337701
C     -5.968491  1.437960 -3.722828
C     -7.343105  3.398881 -3.104929
C     -5.301556  3.655494 -4.546235
H     -7.326997 -2.187448  0.010300
H     -7.710159 -1.884936 -1.691542
H     -7.962573 -0.617439 -0.495786
C     -4.685411 -0.646178  3.016387
H     -5.454492 -1.783914  1.358178
H     -6.490352 -0.435427  1.853669
H     -6.156289 -3.581341 -1.412302
H     -4.383986 -4.999392 -2.305305
H     -2.199591 -4.037983 -2.961222
H     -1.853400 -1.573289 -2.742378
H     -3.223770  2.110026  0.504318
H     -2.960136  4.538417  0.950684
H     -4.097511  6.156423 -0.562371
H     -5.390714  5.352522 -2.447737
H     -4.982185  1.029818 -3.927094
H     -6.552955  1.361001 -4.639725
H     -6.455009  0.830893 -2.966815
H     -7.387903  4.466310 -2.898796
H     -7.788497  2.868296 -2.264465
H     -7.945182  3.200821 -3.991502
H     -5.875752  3.414346 -5.440112
H     -4.271064  3.342522 -4.705657
H     -5.314197  4.735684 -4.426364
H     -4.698364  0.377150  3.385670
H     -3.650464 -0.946318  2.867168
H     -5.128211 -1.293471  3.771326
H     -6.301689  1.920070  0.162847
