52
charge: 0; multiplicity: 1; energy: -1151.891013342164; SMILES: CCO[C@@]1(O)N(C)c2ccccc2C(=O)N1c1ccccc1C(C)(C)C; frequencies: [0.0, 0.0, 0.0, 0.0, 0.0, 0.0, 12.15, 36.41, 49.49, 61.42, 72.86, 90.43, 105.26, 123.15, 127.86, 141.5, 166.48, 169.68, 193.75, 202.75, 217.11, 232.52, 252.59, 257.77, 265.15, 266.68, 284.05, 288.97, 304.86, 313.95, 343.72, 366.04, 372.04, 378.36, 392.67, 404.45, 414.42, 434.07, 445.35, 470.02, 498.64, 511.13, 532.75, 538.15, 555.38, 571.31, 586.73, 604.7, 659.13, 676.2, 693.26, 704.07, 719.24, 729.69, 783.33, 785.48, 786.76, 818.22, 821.49, 847.96, 871.39, 888.92, 892.82, 909.5, 917.84, 942.88, 954.98, 965.06, 970.46, 997.96, 1000.7, 1020.23, 1021.36, 1048.26, 1053.67, 1068.43, 1073.62, 1079.96, 1089.6, 1094.21, 1117.06, 1136.44, 1149.44, 1151.66, 1154.6, 1169.18, 1176.26, 1184.61, 1187.41, 1188.18, 1202.38, 1231.45, 1237.3, 1247.1, 1264.22, 1284.81, 1307.43, 1311.26, 1313.0, 1321.91, 1333.44, 1340.38, 1381.37, 1398.4, 1399.42, 1406.56, 1412.65, 1433.37, 1435.61, 1460.88, 1477.47, 1480.77, 1482.83, 1489.45, 1492.26, 1495.77, 1503.57, 1504.83, 1508.77, 1510.84, 1525.66, 1529.26, 1535.75, 1545.63, 1549.3, 1653.4, 1663.17, 1685.94, 1690.09, 1768.29, 3042.57, 3057.59, 3061.83, 3069.4, 3077.07, 3077.62, 3121.01, 3122.99, 3126.41, 3134.98, 3145.35, 3146.58, 3147.99, 3149.79, 3163.95, 3185.89, 3191.2, 3197.96, 3199.77, 3215.49, 3219.45, 3229.6, 3233.66, 3248.45, 3250.5, 3856.84]; program: ORCA; DOI: 10.1002/chem.202401109
O     -1.832880  0.176101 -2.975463
C     -2.617522 -0.333810 -2.201448
C     -3.042737 -1.743742 -2.290971
C     -4.066757 -2.224594 -1.471480
N     -4.639422 -1.388259 -0.513466
C     -5.398099 -2.040851  0.543957
C     -3.822175 -0.274113 -0.067941
O     -4.560161  0.592857  0.720771
C     -5.739156  1.170530  0.152797
O     -2.771011 -0.712627  0.763053
C     -4.493875 -3.543257 -1.649008
C     -3.908052 -4.340758 -2.616022
C     -2.886337 -3.860395 -3.424299
C     -2.463434 -2.557031 -3.255015
N     -3.258479  0.398768 -1.223343
C     -2.922951  1.794724 -1.121483
C     -2.034317  2.156277 -0.113027
C     -1.654861  3.468320  0.071947
C     -2.155380  4.432350 -0.787430
C     -3.018098  4.062865 -1.799286
C     -3.443544  2.744856 -2.005753
C     -4.384816  2.531204 -3.211781
C     -4.967966  1.128546 -3.432590
C     -5.586983  3.484585 -3.087632
C     -3.589746  2.877890 -4.481448
H     -4.827759 -2.840040  1.022811
H     -6.313820 -2.460452  0.135815
H     -5.670922 -1.306481  1.291906
C     -6.364508  2.039316  1.216646
H     -6.415158  0.380731 -0.175034
H     -5.463170  1.764597 -0.712522
H     -5.279090 -3.953855 -1.036870
H     -4.255358 -5.357586 -2.733404
H     -2.433871 -4.493078 -4.172527
H     -1.682551 -2.128600 -3.865061
H     -1.644853  1.376672  0.520549
H     -0.967118  3.730340  0.862396
H     -1.867859  5.468452 -0.680420
H     -3.370807  4.833250 -2.466605
H     -4.214445  0.421423 -3.758941
H     -5.698496  1.203046 -4.237701
H     -5.477241  0.724444 -2.564009
H     -5.292297  4.527619 -3.019452
H     -6.186259  3.249259 -2.208250
H     -6.224057  3.377649 -3.964620
H     -4.219588  2.736549 -5.359963
H     -2.722301  2.226403 -4.564852
H     -3.245945  3.909911 -4.474536
H     -5.670254  2.818914  1.521891
H     -6.634316  1.450659  2.091497
H     -7.264919  2.510105  0.826519
H     -3.089401 -0.667028  1.668445
