52
charge: 0; multiplicity: 1; energy: -1151.823313303072; SMILES: CCO[C@@]1(O)N(C)c2ccccc2C(=O)N1c1ccccc1C(C)(C)C; frequencies: [0.0, 0.0, 0.0, 0.0, 0.0, 0.0, -62.85, 31.19, 61.93, 82.63, 93.48, 100.28, 116.02, 124.9, 142.75, 163.08, 171.36, 195.11, 208.21, 228.25, 238.36, 252.42, 263.48, 268.08, 282.25, 300.32, 301.46, 320.83, 333.94, 351.86, 376.24, 396.19, 413.26, 418.5, 424.64, 429.4, 439.54, 452.53, 465.76, 469.15, 475.28, 513.35, 534.77, 538.19, 554.94, 581.32, 598.77, 609.37, 648.7, 667.99, 693.53, 702.34, 716.98, 727.03, 736.39, 778.73, 782.07, 808.09, 818.92, 825.57, 859.38, 862.17, 886.46, 890.47, 922.64, 935.67, 950.98, 960.31, 964.35, 980.93, 993.05, 1011.47, 1021.43, 1044.68, 1055.84, 1064.33, 1073.35, 1077.39, 1081.11, 1101.5, 1122.59, 1128.33, 1132.34, 1143.55, 1153.79, 1156.74, 1161.92, 1176.04, 1182.97, 1187.11, 1196.44, 1209.51, 1225.12, 1230.26, 1234.53, 1247.32, 1265.45, 1277.43, 1306.3, 1317.44, 1326.77, 1341.86, 1386.75, 1387.53, 1392.6, 1398.91, 1401.74, 1425.14, 1432.42, 1458.62, 1466.08, 1478.3, 1480.42, 1488.2, 1495.18, 1496.03, 1498.76, 1501.9, 1506.62, 1507.52, 1523.71, 1525.34, 1536.61, 1536.99, 1552.88, 1623.13, 1656.44, 1678.77, 1685.16, 1775.5, 3052.82, 3057.45, 3060.38, 3063.33, 3066.13, 3072.61, 3108.59, 3111.69, 3118.06, 3126.48, 3128.07, 3140.98, 3145.5, 3153.67, 3201.1, 3204.13, 3207.09, 3220.51, 3224.75, 3236.84, 3249.0, 3257.79, 3258.29, 3265.51, 3327.22, 3786.14]; program: ORCA; DOI: 10.1002/chem.202401109
O     -2.474777 -1.321117 -3.353448
C     -3.109727 -1.076857 -2.353640
C     -3.122077 -2.062818 -1.251368
C     -4.186848 -2.093669 -0.364187
N     -5.204005 -1.176350 -0.590518
C     -6.286907 -1.155630  0.384358
C     -4.789252  0.142688 -1.027993
O     -5.930455  0.821868 -1.448980
C     -6.626592  0.226043 -2.551534
O     -4.252984  0.773045  0.086339
C     -4.212173 -3.061118  0.638529
C     -3.169637 -3.968513  0.735601
C     -2.102104 -3.935610 -0.151012
C     -2.089122 -2.982967 -1.153795
N     -3.830529  0.126042 -2.142710
C     -3.241485  1.381550 -2.607739
C     -2.375985  1.249364 -3.698504
C     -1.323253  2.114676 -3.943252
C     -1.101626  3.147486 -3.064499
C     -2.117682  3.438082 -2.170117
C     -3.294513  2.701899 -2.000239
C     -4.530639  3.609089 -1.602353
C     -5.515372  3.496244 -2.778138
C     -5.239889  3.425859 -0.248553
C     -4.132720  5.101377 -1.592779
H     -5.928375 -0.931255  1.390407
H     -6.773635 -2.127373  0.384840
H     -7.011936 -0.405318  0.100251
C     -8.019371  0.811572 -2.587060
H     -6.659366 -0.853585 -2.419016
H     -6.081995  0.430572 -3.474235
H     -5.027212 -3.108892  1.340903
H     -3.193732 -4.710910  1.520621
H     -1.295943 -4.647922 -0.063787
H     -1.290229 -2.936557 -1.877581
H     -2.480894  0.394389 -4.330970
H     -0.670061  1.927929 -4.782600
H     -0.233536  3.785725 -3.130883
H     -2.026367  4.359807 -1.625004
H     -5.057296  3.904234 -3.678280
H     -6.414562  4.073077 -2.560427
H     -5.798363  2.476346 -2.981145
H     -4.522604  3.471895  0.571899
H     -5.811182  2.517529 -0.163458
H     -5.924873  4.262426 -0.116611
H     -5.051007  5.679289 -1.507378
H     -3.633276  5.406922 -2.508199
H     -3.508632  5.365137 -0.740165
H     -7.987084  1.892778 -2.694758
H     -8.559435  0.574350 -1.672611
H     -8.570571  0.397136 -3.429148
H     -3.757492  1.552079 -0.187723
